data_dy3al5o12

_cell_length_a 11.8997(0.0011)
_cell_length_b 11.8997
_cell_length_c 11.8997
_cell_angle_alpha 90
_cell_angle_beta 90
_cell_angle_gamma 90
_space_group_name_H-M_alt "I a -3 d"
_space_group_IT_coordinate_system_code 1

loop_
_atom_site_label
_atom_site_type_symbol
_atom_site_fract_x
_atom_site_fract_y
_atom_site_fract_z
_atom_site_occupancy
_atom_site_adp_type
_atom_site_B_iso_or_equiv
_atom_site_multiplicity
_atom_site_Wyckoff_symbol
Dy Dy 0.125 0 0.25 1 Biso 0 24 c 
Al1 Al 0.375 0 0.25 1 Biso 0 24 d 
Al2 Al 0 0 0 1 Biso 0 16 a 
O O 0.0301(0.0004) 0.0499(0.0006) 0.648(0.0008) 1 Biso 0 96 h

data_g41

_diffrn_radiation_probe neutron
_diffrn_radiation_wavelength 2.4
_pd_meas_2theta_offset -0.0708(0.0001)
_pd_instr_resolution_u 0.8971(0.0786)
_pd_instr_resolution_v -0.3054(0.0833)
_pd_instr_resolution_w 0.0966(0.0206)
_pd_instr_resolution_x 0
_pd_instr_resolution_y 0
_pd_meas_2theta_range_min 13.6
_pd_meas_2theta_range_max 93.5
_pd_meas_2theta_range_inc 0.05
_pd_instr_reflex_asymmetry_p1 0
_pd_instr_reflex_asymmetry_p2 0
_pd_instr_reflex_asymmetry_p3 0
_pd_instr_reflex_asymmetry_p4 0

loop_
_phase_label
_phase_scale
dy3al5o12 0.0274(0.0003) 

loop_
_pd_background_2theta
_pd_background_intensity
10 960.0009(20.2876) 
20 949.1556(7.8066) 
30 1001.7074(7.3431) 
40 992.3889(7.0759) 
50 988.8685(7.349) 
60 1013.26(7.3787) 
70 982.0662(7.4806) 
80 994.7656(7.6214) 
90 1157.3786(10.532) 
100 1489.4291(86.9528)

loop_
_pd_proc_2theta
_pd_proc_2theta_corrected
_pd_proc_intensity_plus_net
_pd_proc_intensity_minus_net
_pd_proc_intensity_bkg_calc
_pd_proc_intensity
_pd_proc_intensity_sigma
_pd_proc_excluded
  13.60   13.67      0.00      0.00    956.10    932.90   27.88   False
  13.70   13.77      0.00      0.00    955.99    952.10   28.17   False
  13.80   13.87      0.00      0.00    955.88    929.00   27.82   False
  13.90   13.97      0.00      0.00    955.77    949.50   28.13   False
  14.00   14.07      0.00      0.00    955.66    905.00   27.46   False
  14.10   14.17      0.00      0.00    955.55    960.90   28.30   False
  14.20   14.27      0.00      0.00    955.45    995.00   28.80   False
  14.30   14.37      0.00      0.00    955.34    914.30   27.60   False
  14.40   14.47      0.00      0.00    955.23    915.10   27.61   False
  14.50   14.57      0.00      0.00    955.12    939.10   27.97   False
  14.60   14.67      0.00      0.00    955.01    958.80   28.27   False
  14.70   14.77      0.00      0.00    954.90    947.70   28.10   False
  14.80   14.87      0.00      0.00    954.80    927.20   27.80   False
  14.90   14.97      0.00      0.00    954.69    988.10   28.70   False
  15.00   15.07      0.00      0.00    954.58    989.10   28.71   False
  15.10   15.17      0.00      0.00    954.47   1000.30   28.87   False
  15.20   15.27      0.00      0.00    954.36   1003.00   28.91   False
  15.30   15.37      0.00      0.00    954.25    956.70   28.24   False
  15.40   15.47      0.00      0.00    954.14    967.30   28.39   False
  15.50   15.57      0.00      0.00    954.04    976.90   28.53   False
  15.60   15.67      0.00      0.00    953.93    965.60   28.37   False
  15.70   15.77      0.00      0.00    953.82    932.20   27.87   False
  15.80   15.87      0.00      0.00    953.71    984.10   28.64   False
  15.90   15.97      0.00      0.00    953.60    950.80   28.15   False
  16.00   16.07      0.00      0.00    953.49    950.10   28.14   False
  16.10   16.17      0.00      0.00    953.39    987.90   28.69   False
  16.20   16.27      0.00      0.00    953.28   1000.60   28.88   False
  16.30   16.37      0.00      0.00    953.17    945.30   28.07   False
  16.40   16.47      0.00      0.00    953.06    970.80   28.44   False
  16.50   16.57      0.00      0.00    952.95    907.90   27.51   False
  16.60   16.67      0.00      0.00    952.84    979.30   28.57   False
  16.70   16.77      0.00      0.00    952.73    968.90   28.42   False
  16.80   16.87      0.00      0.00    952.63    987.20   28.68   False
  16.90   16.97      0.00      0.00    952.52    949.10   28.12   False
  17.00   17.07      0.00      0.00    952.41    997.40   28.83   False
  17.10   17.17      0.00      0.00    952.30    971.10   28.45   False
  17.20   17.27      0.00      0.00    952.19    914.40   27.60   False
  17.30   17.37      0.00      0.00    952.08    921.60   27.71   False
  17.40   17.47      0.00      0.00    951.98    929.50   27.83   False
  17.50   17.57      0.00      0.00    951.87    941.30   28.01   False
  17.60   17.67      0.00      0.00    951.76    989.60   28.72   False
  17.70   17.77      0.00      0.00    951.65    931.00   27.85   False
  17.80   17.87      0.00      0.00    951.54    937.90   27.96   False
  17.90   17.97      0.00      0.00    951.43    935.40   27.92   False
  18.00   18.07      0.00      0.00    951.32    940.60   28.00   False
  18.10   18.17      0.00      0.00    951.22    988.40   28.70   False
  18.20   18.27      0.00      0.00    951.11    957.90   28.25   False
  18.30   18.37      0.00      0.00    951.00    957.40   28.25   False
  18.40   18.47      0.00      0.00    950.89    994.40   28.79   False
  18.50   18.57      0.00      0.00    950.78    959.70   28.28   False
  18.60   18.67      0.00      0.00    950.67    973.10   28.48   False
  18.70   18.77      0.00      0.00    950.57    942.40   28.02   False
  18.80   18.87      0.00      0.00    950.46    920.70   27.70   False
  18.90   18.97      0.00      0.00    950.35    948.40   28.11   False
  19.00   19.07      0.00      0.00    950.24    936.20   27.93   False
  19.10   19.17      0.00      0.00    950.13    902.70   27.43   False
  19.20   19.27      0.00      0.00    950.02   1007.60   28.98   False
  19.30   19.37      0.00      0.00    949.91    963.10   28.33   False
  19.40   19.47      0.00      0.00    949.81    942.60   28.03   False
  19.50   19.57      0.00      0.00    949.70    986.10   28.67   False
  19.60   19.67      0.00      0.00    949.59    964.00   28.34   False
  19.70   19.77      0.00      0.00    949.48    951.00   28.15   False
  19.80   19.87      0.00      0.00    949.37    946.00   28.08   False
  19.90   19.97      0.00      0.00    949.26    951.80   28.16   False
  20.00   20.07      0.00      0.00    949.16    966.70   28.38   False
  20.10   20.17      0.00      0.00    949.68    932.10   27.87   False
  20.20   20.27      0.00      0.00    950.21    931.30   27.86   False
  20.30   20.37      0.00      0.00    950.73    965.80   28.37   False
  20.40   20.47      0.00      0.00    951.26    966.20   28.38   False
  20.50   20.57      0.00      0.00    951.78    924.60   27.76   False
  20.60   20.67      0.00      0.00    952.31    914.40   27.60   False
  20.70   20.77      0.00      0.00    952.83    962.60   28.32   False
  20.80   20.87      0.00      0.00    953.36    939.60   27.98   False
  20.90   20.97      0.00      0.00    953.89    951.70   28.16   False
  21.00   21.07      0.00      0.00    954.41    945.60   28.07   False
  21.10   21.17      0.00      0.00    954.94    909.10   27.52   False
  21.20   21.27      0.00      0.00    955.46    982.80   28.62   False
  21.30   21.37      0.00      0.00    955.99    943.80   28.04   False
  21.40   21.47      0.00      0.00    956.51    977.10   28.54   False
  21.50   21.57      0.00      0.00    957.04    985.90   28.66   False
  21.60   21.67      0.00      0.00    957.56    958.30   28.26   False
  21.70   21.77      0.00      0.00    958.09    954.10   28.20   False
  21.80   21.87      0.00      0.00    958.61    952.50   28.17   False
  21.90   21.97      0.00      0.00    959.14    967.10   28.39   False
  22.00   22.07      0.00      0.00    959.67    939.10   27.97   False
  22.10   22.17      0.00      0.00    960.19    984.80   28.65   False
  22.20   22.27      0.00      0.00    960.72   1002.70   28.91   False
  22.30   22.37      0.00      0.00    961.24    895.00   27.31   False
  22.40   22.47      0.00      0.00    961.77    974.80   28.50   False
  22.50   22.57      0.00      0.00    962.29    921.60   27.71   False
  22.60   22.67      0.00      0.00    962.82    916.10   27.63   False
  22.70   22.77      0.00      0.00    963.34    988.60   28.70   False
  22.80   22.87      0.00      0.00    963.87    927.90   27.81   False
  22.90   22.97      0.00      0.00    964.40    969.40   28.42   False
  23.00   23.07      0.00      0.00    964.92    965.50   28.37   False
  23.10   23.17      0.00      0.00    965.45    945.10   28.06   False
  23.20   23.27      0.00      0.00    965.97    951.00   28.15   False
  23.30   23.37      0.00      0.00    966.50    947.10   28.09   False
  23.40   23.47      0.00      0.00    967.02    947.40   28.10   False
  23.50   23.57      0.00      0.00    967.55    924.60   27.76   False
  23.60   23.67      0.00      0.00    968.07    991.00   28.74   False
  23.70   23.77      0.00      0.00    968.60    941.80   28.01   False
  23.80   23.87      0.00      0.00    969.13    977.00   28.53   False
  23.90   23.97      0.00      0.00    969.65    955.80   28.22   False
  24.00   24.07      0.00      0.00    970.18    972.60   28.47   False
  24.10   24.17      0.00      0.00    970.70    977.50   28.54   False
  24.20   24.27      0.00      0.00    971.23   1053.80   29.63   False
  24.30   24.37      0.00      0.00    971.75    919.40   27.68   False
  24.40   24.47      0.00      0.00    972.28   1013.30   29.06   False
  24.50   24.57      0.00      0.00    972.80    965.80   28.37   False
  24.60   24.67      0.00      0.00    973.33    972.80   28.47   False
  24.70   24.77      0.00      0.00    973.85    962.00   28.31   False
  24.80   24.87      0.00      0.00    974.38    932.60   27.88   False
  24.90   24.97      0.00      0.00    974.91    988.80   28.71   False
  25.00   25.07      0.00      0.00    975.43    964.80   28.35   False
  25.10   25.17      0.00      0.00    975.96   1011.50   29.03   False
  25.20   25.27      0.00      0.00    976.48    956.60   28.23   False
  25.30   25.37      0.00      0.00    977.01    975.60   28.51   False
  25.40   25.47      0.00      0.00    977.53    950.20   28.14   False
  25.50   25.57      0.00      0.00    978.06    967.70   28.40   False
  25.60   25.67      0.00      0.00    978.58    987.30   28.68   False
  25.70   25.77      0.00      0.00    979.11   1011.70   29.04   False
  25.80   25.87      0.00      0.00    979.64    970.20   28.43   False
  25.90   25.97      0.00      0.00    980.16   1012.20   29.04   False
  26.00   26.07      0.00      0.00    980.69   1030.90   29.31   False
  26.10   26.17      0.00      0.00    981.21   1008.90   29.00   False
  26.20   26.27      0.00      0.00    981.74    988.80   28.71   False
  26.30   26.37      0.00      0.00    982.26    968.70   28.41   False
  26.40   26.47      0.00      0.00    982.79    977.40   28.54   False
  26.50   26.57      0.00      0.00    983.31    963.60   28.34   False
  26.60   26.67      0.00      0.00    983.84    990.10   28.72   False
  26.70   26.77      0.00      0.00    984.37   1019.90   29.15   False
  26.80   26.87      0.00      0.00    984.89   1000.00   28.87   False
  26.90   26.97      0.00      0.00    985.42    991.00   28.74   False
  27.00   27.07      0.00      0.00    985.94    997.50   28.83   False
  27.10   27.17      0.00      0.00    986.47    938.40   27.96   False
  27.20   27.27      0.00      0.00    986.99   1009.40   29.00   False
  27.30   27.37      0.00      0.00    987.52    948.20   28.11   False
  27.40   27.47      0.00      0.00    988.04    991.90   28.75   False
  27.50   27.57      0.00      0.00    988.57   1045.20   29.51   False
  27.60   27.67      0.00      0.00    989.09    985.60   28.66   False
  27.70   27.77      0.00      0.00    989.62    945.80   28.07   False
  27.80   27.87      0.00      0.00    990.15   1004.70   28.94   False
  27.90   27.97      0.00      0.00    990.67    982.30   28.61   False
  28.00   28.07      0.03      0.03    991.20    949.60   28.13   False
  28.10   28.17      1.09      1.09    991.72   1023.00   29.20   False
  28.20   28.27     17.22     17.22    992.25   1072.00   29.89   False
  28.30   28.37    130.96    130.96    992.77   1217.90   31.86   False
  28.40   28.47    480.83    480.83    993.30   1952.50   40.34   False
  28.50   28.57    855.53    855.53    993.82   2801.10   48.31   False
  28.60   28.67    740.59    740.59    994.35   2139.00   42.22   False
  28.70   28.77    313.14    313.14    994.88   1505.80   35.42   False
  28.80   28.87     64.93     64.93    995.40   1095.40   30.21   False
  28.90   28.97      6.63      6.63    995.93   1054.50   29.64   False
  29.00   29.07      0.33      0.33    996.45   1015.40   29.09   False
  29.10   29.17      0.01      0.01    996.98    948.70   28.12   False
  29.20   29.27      0.00      0.00    997.50    996.50   28.82   False
  29.30   29.37      0.00      0.00    998.03   1052.80   29.62   False
  29.40   29.47      0.00      0.00    998.55    964.70   28.35   False
  29.50   29.57      0.00      0.00    999.08    975.00   28.50   False
  29.60   29.67      0.00      0.00    999.61   1034.80   29.37   False
  29.70   29.77      0.00      0.00   1000.13   1022.60   29.19   False
  29.80   29.87      0.00      0.00   1000.66   1030.70   29.31   False
  29.90   29.97      0.00      0.00   1001.18   1014.50   29.08   False
  30.00   30.07      0.00      0.00   1001.71   1002.30   28.90   False
  30.10   30.17      0.00      0.00   1001.61    958.20   28.26   False
  30.20   30.27      0.00      0.00   1001.52   1056.40   29.67   False
  30.30   30.37      0.00      0.00   1001.43   1010.30   29.02   False
  30.40   30.47      0.00      0.00   1001.33   1030.00   29.30   False
  30.50   30.57      0.00      0.00   1001.24   1046.60   29.53   False
  30.60   30.67      0.00      0.00   1001.15    993.60   28.77   False
  30.70   30.77      0.00      0.00   1001.06    984.60   28.64   False
  30.80   30.87      0.00      0.00   1000.96    957.70   28.25   False
  30.90   30.97      0.00      0.00   1000.87   1029.80   29.29   False
  31.00   31.07      0.00      0.00   1000.78    996.20   28.81   False
  31.10   31.17      0.00      0.00   1000.68    990.60   28.73   False
  31.20   31.27      0.00      0.00   1000.59    980.50   28.58   False
  31.30   31.37      0.00      0.00   1000.50    978.20   28.55   False
  31.40   31.47      0.00      0.00   1000.40    991.70   28.75   False
  31.50   31.57      0.00      0.00   1000.31   1016.60   29.11   False
  31.60   31.67      0.00      0.00   1000.22    980.50   28.58   False
  31.70   31.77      0.00      0.00   1000.12   1012.10   29.04   False
  31.80   31.87      0.00      0.00   1000.03    985.20   28.65   False
  31.90   31.97      0.00      0.00    999.94   1048.00   29.55   False
  32.00   32.07      0.00      0.00    999.84   1029.20   29.29   False
  32.10   32.17      0.00      0.00    999.75   1030.00   29.30   False
  32.20   32.27      0.00      0.00    999.66    962.30   28.32   False
  32.30   32.37      0.00      0.00    999.56    982.40   28.61   False
  32.40   32.47      0.00      0.00    999.47   1014.40   29.07   False
  32.50   32.57      0.00      0.00    999.38    952.00   28.17   False
  32.60   32.67      0.08      0.08    999.28   1019.10   29.14   False
  32.70   32.77      1.27      1.27    999.19   1043.50   29.49   False
  32.80   32.87     10.66     10.66    999.10   1040.40   29.44   False
  32.90   32.97     46.07     46.07    999.01   1099.50   30.27   False
  33.00   33.07    102.98    102.98    998.91   1240.20   32.15   False
  33.10   33.17    119.64    119.64    998.82   1310.80   33.05   False
  33.20   33.27     72.60     72.60    998.73   1128.10   30.66   False
  33.30   33.37     23.13     23.13    998.63   1079.30   29.99   False
  33.40   33.47      3.89      3.89    998.54   1032.60   29.33   False
  33.50   33.57      0.35      0.35    998.45   1015.30   29.09   False
  33.60   33.67      0.02      0.02    998.35    973.20   28.48   False
  33.70   33.77      0.00      0.00    998.26    979.60   28.57   False
  33.80   33.87      0.00      0.00    998.17    954.10   28.20   False
  33.90   33.97      0.00      0.00    998.07   1029.00   29.28   False
  34.00   34.07      0.00      0.00    997.98    994.50   28.79   False
  34.10   34.17      0.00      0.00    997.89    975.20   28.51   False
  34.20   34.27      0.00      0.00    997.79   1007.40   28.97   False
  34.30   34.37      0.00      0.00    997.70    977.80   28.55   False
  34.40   34.47      0.00      0.00    997.61    978.10   28.55   False
  34.50   34.57      0.00      0.00    997.51    963.70   28.34   False
  34.60   34.67      0.00      0.00    997.42    956.80   28.24   False
  34.70   34.77      0.00      0.00    997.33   1044.70   29.51   False
  34.80   34.87      0.00      0.00    997.23    977.10   28.54   False
  34.90   34.97      0.00      0.00    997.14   1011.00   29.03   False
  35.00   35.07      0.00      0.00    997.05   1066.90   29.82   False
  35.10   35.17      0.00      0.00    996.95    987.10   28.68   False
  35.20   35.27      0.00      0.00    996.86   1016.50   29.10   False
  35.30   35.37      0.00      0.00    996.77    999.40   28.86   False
  35.40   35.47      0.00      0.00    996.68    941.60   28.01   False
  35.50   35.57      0.00      0.00    996.58   1010.90   29.02   False
  35.60   35.67      0.00      0.00    996.49   1001.00   28.88   False
  35.70   35.77      0.00      0.00    996.40   1011.80   29.04   False
  35.80   35.87      0.00      0.00    996.30   1033.80   29.35   False
  35.90   35.97      0.00      0.00    996.21    895.60   27.32   False
  36.00   36.07      0.00      0.00    996.12    972.60   28.47   False
  36.10   36.17      0.00      0.00    996.02   1019.90   29.15   False
  36.20   36.27      0.00      0.00    995.93   1086.60   30.09   False
  36.30   36.37      0.00      0.00    995.84   1014.20   29.07   False
  36.40   36.47      0.00      0.00    995.74    990.40   28.73   False
  36.50   36.57      0.00      0.00    995.65   1029.00   29.28   False
  36.60   36.67      0.00      0.00    995.56    958.40   28.26   False
  36.70   36.77      0.00      0.00    995.46    999.00   28.85   False
  36.80   36.87      0.00      0.00    995.37    972.70   28.47   False
  36.90   36.97      0.00      0.00    995.28    958.60   28.26   False
  37.00   37.07      0.00      0.00    995.18    992.70   28.76   False
  37.10   37.17      0.00      0.00    995.09    982.10   28.61   False
  37.20   37.27      0.00      0.00    995.00    998.20   28.84   False
  37.30   37.37      0.00      0.00    994.90   1042.30   29.47   False
  37.40   37.47      0.00      0.00    994.81   1002.10   28.90   False
  37.50   37.57      0.00      0.00    994.72    985.30   28.65   False
  37.60   37.67      0.00      0.00    994.63    966.50   28.38   False
  37.70   37.77      0.00      0.00    994.53   1027.50   29.26   False
  37.80   37.87      0.00      0.00    994.44   1036.50   29.39   False
  37.90   37.97      0.00      0.00    994.35   1046.60   29.53   False
  38.00   38.07      0.00      0.00    994.25    988.80   28.71   False
  38.10   38.17      0.00      0.00    994.16   1058.60   29.70   False
  38.20   38.27      0.00      0.00    994.07   1007.80   28.98   False
  38.30   38.37      0.00      0.00    993.97   1018.60   29.13   False
  38.40   38.47      0.00      0.00    993.88   1019.30   29.14   False
  38.50   38.57      0.00      0.00    993.79    983.20   28.62   False
  38.60   38.67      0.00      0.00    993.69   1046.80   29.54   False
  38.70   38.77      0.00      0.00    993.60   1006.60   28.96   False
  38.80   38.87      0.00      0.00    993.51    999.40   28.86   False
  38.90   38.97      0.00      0.00    993.41    997.70   28.83   False
  39.00   39.07      0.00      0.00    993.32   1044.20   29.50   False
  39.10   39.17      0.00      0.00    993.23   1006.00   28.95   False
  39.20   39.27      0.00      0.00    993.13    964.50   28.35   False
  39.30   39.37      0.00      0.00    993.04   1009.20   29.00   False
  39.40   39.47      0.00      0.00    992.95    969.80   28.43   False
  39.50   39.57      0.00      0.00    992.85   1000.90   28.88   False
  39.60   39.67      0.00      0.00    992.76    987.20   28.68   False
  39.70   39.77      0.00      0.00    992.67    997.00   28.82   False
  39.80   39.87      0.00      0.00    992.58    955.70   28.22   False
  39.90   39.97      0.00      0.00    992.48    975.30   28.51   False
  40.00   40.07      0.00      0.00    992.39   1023.10   29.20   False
  40.10   40.17      0.00      0.00    992.35    979.40   28.57   False
  40.20   40.27      0.00      0.00    992.32   1001.50   28.89   False
  40.30   40.37      0.00      0.00    992.28    955.50   28.22   False
  40.40   40.47      0.00      0.00    992.25    969.30   28.42   False
  40.50   40.57      0.00      0.00    992.21    975.30   28.51   False
  40.60   40.67      0.00      0.00    992.18   1034.20   29.36   False
  40.70   40.77      0.00      0.00    992.14    975.20   28.51   False
  40.80   40.87      0.00      0.00    992.11   1018.40   29.13   False
  40.90   40.97      0.00      0.00    992.07   1008.10   28.98   False
  41.00   41.07      0.00      0.00    992.04    998.40   28.84   False
  41.10   41.17      0.00      0.00    992.00    958.40   28.26   False
  41.20   41.27      0.00      0.00    991.97   1020.40   29.16   False
  41.30   41.37      0.00      0.00    991.93   1044.00   29.50   False
  41.40   41.47      0.00      0.00    991.90    934.40   27.90   False
  41.50   41.57      0.00      0.00    991.86   1011.50   29.03   False
  41.60   41.67      0.00      0.00    991.83   1013.10   29.06   False
  41.70   41.77      0.00      0.00    991.79    997.40   28.83   False
  41.80   41.87      0.00      0.00    991.76    972.70   28.47   False
  41.90   41.97      0.00      0.00    991.72    948.00   28.11   False
  42.00   42.07      0.00      0.00    991.68   1045.20   29.51   False
  42.10   42.17      0.00      0.00    991.65    957.00   28.24   False
  42.20   42.27      0.00      0.00    991.61   1019.00   29.14   False
  42.30   42.37      0.00      0.00    991.58    959.30   28.27   False
  42.40   42.47      0.00      0.00    991.54    946.30   28.08   False
  42.50   42.57      0.00      0.00    991.51    952.20   28.17   False
  42.60   42.67      0.00      0.00    991.47    983.90   28.63   False
  42.70   42.77      0.00      0.00    991.44   1046.80   29.54   False
  42.80   42.87      0.00      0.00    991.40    997.10   28.83   False
  42.90   42.97      0.00      0.00    991.37    968.00   28.40   False
  43.00   43.07      0.00      0.00    991.33   1004.00   28.93   False
  43.10   43.17      0.00      0.00    991.30   1054.40   29.64   False
  43.20   43.27      0.00      0.00    991.26   1014.70   29.08   False
  43.30   43.37      0.00      0.00    991.23    974.90   28.50   False
  43.40   43.47      0.00      0.00    991.19    997.40   28.83   False
  43.50   43.57      0.00      0.00    991.16    965.90   28.37   False
  43.60   43.67      0.02      0.02    991.12    970.90   28.44   False
  43.70   43.77      0.27      0.27    991.09    941.10   28.00   False
  43.80   43.87      3.08      3.08    991.05    976.40   28.52   False
  43.90   43.97     21.30     21.30    991.02   1001.00   28.88   False
  44.00   44.07     91.70     91.70    990.98   1069.40   29.85   False
  44.10   44.17    246.47    246.47    990.95   1423.50   34.44   False
  44.20   44.27    415.78    415.78    990.91   1805.40   38.79   False
  44.30   44.37    442.39    442.39    990.88   1889.40   39.68   False
  44.40   44.47    298.34    298.34    990.84   1668.10   37.28   False
  44.50   44.57    128.15    128.15    990.80   1316.40   33.12   False
  44.60   44.67     35.23     35.23    990.77   1042.30   29.47   False
  44.70   44.77      6.23      6.23    990.73   1013.60   29.06   False
  44.80   44.87      0.71      0.71    990.70    984.30   28.64   False
  44.90   44.97      0.05      0.05    990.66   1001.20   28.88   False
  45.00   45.07      0.00      0.00    990.63   1017.60   29.12   False
  45.10   45.17      0.00      0.00    990.59    952.40   28.17   False
  45.20   45.27      0.00      0.00    990.56   1008.10   28.98   False
  45.30   45.37      0.00      0.00    990.52    967.00   28.39   False
  45.40   45.47      0.00      0.00    990.49   1001.10   28.88   False
  45.50   45.57      0.00      0.00    990.45    927.10   27.80   False
  45.60   45.67      0.00      0.00    990.42    916.10   27.63   False
  45.70   45.77      0.00      0.00    990.38   1020.60   29.16   False
  45.80   45.87      0.00      0.00    990.35   1016.40   29.10   False
  45.90   45.97      0.00      0.00    990.31   1044.80   29.51   False
  46.00   46.07      0.00      0.00    990.28   1011.90   29.04   False
  46.10   46.17      0.00      0.00    990.24    957.50   28.25   False
  46.20   46.27      0.00      0.00    990.21    990.90   28.74   False
  46.30   46.37      0.00      0.00    990.17    981.20   28.59   False
  46.40   46.47      0.00      0.00    990.14    992.60   28.76   False
  46.50   46.57      0.00      0.00    990.10    986.50   28.67   False
  46.60   46.67      0.00      0.00    990.07    940.00   27.99   False
  46.70   46.77      0.00      0.00    990.03   1002.20   28.90   False
  46.80   46.87      0.01      0.01    990.00   1046.90   29.54   False
  46.90   46.97      0.22      0.22    989.96    990.10   28.72   False
  47.00   47.07      2.26      2.26    989.92   1019.30   29.14   False
  47.10   47.17     15.16     15.16    989.89   1010.00   29.01   False
  47.20   47.27     66.44     66.44    989.85   1072.00   29.89   False
  47.30   47.37    191.19    191.19    989.82   1280.70   32.67   False
  47.40   47.47    362.89    362.89    989.78   1697.40   37.61   False
  47.50   47.57    456.43    456.43    989.75   1798.50   38.71   False
  47.60   47.67    382.13    382.13    989.71   1703.00   37.67   False
  47.70   47.77    213.93    213.93    989.68   1496.60   35.32   False
  47.80   47.87     80.44     80.44    989.64   1077.60   29.97   False
  47.90   47.97     20.41     20.41    989.61    984.50   28.64   False
  48.00   48.07      3.51      3.51    989.57   1013.30   29.06   False
  48.10   48.17      0.41      0.41    989.54    965.70   28.37   False
  48.20   48.27      0.03      0.03    989.50   1001.40   28.89   False
  48.30   48.37      0.00      0.00    989.47    965.70   28.37   False
  48.40   48.47      0.00      0.00    989.43   1034.30   29.36   False
  48.50   48.57      0.00      0.00    989.40    981.00   28.59   False
  48.60   48.67      0.00      0.00    989.36    984.10   28.64   False
  48.70   48.77      0.00      0.00    989.33    987.00   28.68   False
  48.80   48.87      0.00      0.00    989.29   1004.20   28.93   False
  48.90   48.97      0.00      0.00    989.26   1005.00   28.94   False
  49.00   49.07      0.00      0.00    989.22   1019.60   29.15   False
  49.10   49.17      0.00      0.00    989.19   1035.30   29.37   False
  49.20   49.27      0.00      0.00    989.15   1015.30   29.09   False
  49.30   49.37      0.00      0.00    989.11    972.50   28.47   False
  49.40   49.47      0.00      0.00    989.08    975.30   28.51   False
  49.50   49.57      0.00      0.00    989.04    985.70   28.66   False
  49.60   49.67      0.00      0.00    989.01    937.50   27.95   False
  49.70   49.77      0.00      0.00    988.97   1007.90   28.98   False
  49.80   49.87      0.00      0.00    988.94    970.50   28.44   False
  49.90   49.97      0.00      0.00    988.90   1012.90   29.05   False
  50.00   50.07      0.00      0.00    988.87    991.40   28.74   False
  50.10   50.17      0.00      0.00    989.11    957.70   28.25   False
  50.20   50.27      0.00      0.00    989.36   1002.60   28.91   False
  50.30   50.37      0.00      0.00    989.60   1010.90   29.02   False
  50.40   50.47      0.00      0.00    989.84   1018.30   29.13   False
  50.50   50.57      0.00      0.00    990.09    966.60   28.38   False
  50.60   50.67      0.00      0.00    990.33    983.60   28.63   False
  50.70   50.77      0.00      0.00    990.58    982.20   28.61   False
  50.80   50.87      0.00      0.00    990.82   1035.00   29.37   False
  50.90   50.97      0.00      0.00    991.06    945.50   28.07   False
  51.00   51.07      0.00      0.00    991.31   1035.70   29.38   False
  51.10   51.17      0.00      0.00    991.55   1070.90   29.87   False
  51.20   51.27      0.00      0.00    991.80   1010.40   29.02   False
  51.30   51.37      0.00      0.00    992.04    974.80   28.50   False
  51.40   51.47      0.00      0.00    992.28   1021.70   29.18   False
  51.50   51.57      0.00      0.00    992.53   1019.20   29.14   False
  51.60   51.67      0.00      0.00    992.77    999.60   28.86   False
  51.70   51.77      0.00      0.00    993.02   1003.90   28.92   False
  51.80   51.87      0.00      0.00    993.26   1050.00   29.58   False
  51.90   51.97      0.00      0.00    993.50   1030.40   29.30   False
  52.00   52.07      0.00      0.00    993.75   1021.90   29.18   False
  52.10   52.17      0.00      0.00    993.99    978.00   28.55   False
  52.20   52.27      0.00      0.00    994.23    966.70   28.38   False
  52.30   52.37      0.00      0.00    994.48   1035.60   29.38   False
  52.40   52.47      0.00      0.00    994.72   1083.50   30.05   False
  52.50   52.57      0.00      0.00    994.97   1041.40   29.46   False
  52.60   52.67      0.00      0.00    995.21   1028.90   29.28   False
  52.70   52.77      0.01      0.01    995.45    989.00   28.71   False
  52.80   52.87      0.19      0.19    995.70   1003.50   28.92   False
  52.90   52.97      1.97      1.97    995.94   1048.50   29.56   False
  53.00   53.07     14.23     14.23    996.19   1038.40   29.42   False
  53.10   53.17     73.04     73.04    996.43   1012.40   29.05   False
  53.20   53.27    266.73    266.73    996.67   1329.00   33.28   False
  53.30   53.37    695.69    695.69    996.92   2219.20   43.00   False
  53.40   53.47   1301.04   1301.04    997.16   3720.10   55.68   False
  53.50   53.57   1751.19   1751.19    997.41   4360.00   60.28   False
  53.60   53.67   1702.84   1702.84    997.65   3884.50   56.90   False
  53.70   53.77   1200.69   1200.69    997.89   3733.30   55.78   False
  53.80   53.87    616.19    616.19    998.14   2436.20   45.06   False
  53.90   53.97    231.00    231.00    998.38   1229.90   32.01   False
  54.00   54.07     63.49     63.49    998.63   1151.30   30.97   False
  54.10   54.17     12.84     12.84    998.87   1072.70   29.90   False
  54.20   54.27      1.92      1.92    999.11   1045.40   29.52   False
  54.30   54.37      0.21      0.21    999.36   1018.10   29.13   False
  54.40   54.47      0.02      0.02    999.60   1008.60   28.99   False
  54.50   54.57      0.00      0.00    999.84    943.40   28.04   False
  54.60   54.67      0.00      0.00   1000.09   1010.00   29.01   False
  54.70   54.77      0.00      0.00   1000.33    995.90   28.81   False
  54.80   54.87      0.00      0.00   1000.58   1051.10   29.60   False
  54.90   54.97      0.00      0.00   1000.82   1072.50   29.90   False
  55.00   55.07      0.00      0.00   1001.06   1119.90   30.55   False
  55.10   55.17      0.00      0.00   1001.31   1108.00   30.39   False
  55.20   55.27      0.00      0.00   1001.55   1046.20   29.53   False
  55.30   55.37      0.00      0.00   1001.80   1111.70   30.44   False
  55.40   55.47      0.00      0.00   1002.04   1046.60   29.53   False
  55.50   55.57      0.00      0.00   1002.28   1022.00   29.18   False
  55.60   55.67      0.01      0.01   1002.53   1069.90   29.86   False
  55.70   55.77      0.05      0.05   1002.77   1009.20   29.00   False
  55.80   55.87      0.33      0.33   1003.02    998.50   28.85   False
  55.90   55.97      1.66      1.66   1003.26    985.30   28.65   False
  56.00   56.07      6.05      6.05   1003.50   1040.50   29.45   False
  56.10   56.17     16.32     16.32   1003.75   1012.70   29.05   False
  56.20   56.27     32.60     32.60   1003.99   1000.40   28.87   False
  56.30   56.37     48.44     48.44   1004.24   1098.30   30.25   False
  56.40   56.47     53.70     53.70   1004.48   1083.30   30.05   False
  56.50   56.57     44.57     44.57   1004.72   1072.40   29.89   False
  56.60   56.67     27.78     27.78   1004.97   1041.00   29.45   False
  56.70   56.77     13.05     13.05   1005.21    996.80   28.82   False
  56.80   56.87      4.64      4.64   1005.45   1004.70   28.94   False
  56.90   56.97      1.25      1.25   1005.70    952.40   28.17   False
  57.00   57.07      0.26      0.26   1005.94   1022.80   29.19   False
  57.10   57.17      0.04      0.04   1006.19    913.90   27.60   False
  57.20   57.27      0.00      0.00   1006.43   1040.90   29.45   False
  57.30   57.37      0.00      0.00   1006.67   1014.40   29.07   False
  57.40   57.47      0.00      0.00   1006.92    987.50   28.69   False
  57.50   57.57      0.00      0.00   1007.16   1003.90   28.92   False
  57.60   57.67      0.00      0.00   1007.41   1014.60   29.08   False
  57.70   57.77      0.00      0.00   1007.65    961.40   28.30   False
  57.80   57.87      0.00      0.00   1007.89    940.00   27.99   False
  57.90   57.97      0.00      0.00   1008.14   1016.60   29.11   False
  58.00   58.07      0.00      0.00   1008.38    992.50   28.76   False
  58.10   58.17      0.00      0.00   1008.63   1035.90   29.38   False
  58.20   58.27      0.00      0.00   1008.87    983.20   28.62   False
  58.30   58.37      0.00      0.00   1009.11    999.20   28.86   False
  58.40   58.47      0.03      0.03   1009.36    990.60   28.73   False
  58.50   58.57      0.20      0.20   1009.60    962.00   28.31   False
  58.60   58.67      0.99      0.99   1009.85   1021.00   29.17   False
  58.70   58.77      3.67      3.67   1010.09   1005.30   28.94   False
  58.80   58.87     10.34     10.34   1010.33   1019.00   29.14   False
  58.90   58.97     22.23     22.23   1010.58   1092.50   30.17   False
  59.00   59.07     36.57     36.57   1010.82   1101.10   30.29   False
  59.10   59.17     46.16     46.16   1011.06   1090.80   30.15   False
  59.20   59.27     44.83     44.83   1011.31   1089.20   30.13   False
  59.30   59.37     33.62     33.62   1011.55   1069.20   29.85   False
  59.40   59.47     19.52     19.52   1011.80   1049.30   29.57   False
  59.50   59.57      8.80      8.80   1012.04   1013.10   29.06   False
  59.60   59.67      3.09      3.09   1012.28   1036.20   29.39   False
  59.70   59.77      0.85      0.85   1012.53    966.40   28.38   False
  59.80   59.87      0.18      0.18   1012.77   1023.20   29.20   False
  59.90   59.97      0.03      0.03   1013.02   1035.30   29.37   False
  60.00   60.07      0.00      0.00   1013.26   1020.30   29.16   False
  60.10   60.17      0.00      0.00   1012.95   1007.20   28.97   False
  60.20   60.27      0.00      0.00   1012.64   1037.90   29.41   False
  60.30   60.37      0.00      0.00   1012.32   1058.20   29.70   False
  60.40   60.47      0.00      0.00   1012.01   1034.50   29.36   False
  60.50   60.57      0.00      0.00   1011.70   1027.40   29.26   False
  60.60   60.67      0.00      0.00   1011.39   1011.40   29.03   False
  60.70   60.77      0.00      0.00   1011.08   1014.60   29.08   False
  60.80   60.87      0.00      0.00   1010.76    973.10   28.48   False
  60.90   60.97      0.01      0.01   1010.45   1063.20   29.77   False
  61.00   61.07      0.12      0.12   1010.14    990.30   28.73   False
  61.10   61.17      0.80      0.80   1009.83   1005.10   28.94   False
  61.20   61.27      4.05      4.05   1009.52   1055.90   29.66   False
  61.30   61.37     15.97     15.97   1009.20   1038.30   29.42   False
  61.40   61.47     49.12     49.12   1008.89   1030.30   29.30   False
  61.50   61.57    118.10    118.10   1008.58   1190.60   31.50   False
  61.60   61.67    222.52    222.52   1008.27   1506.90   35.44   False
  61.70   61.77    329.49    329.49   1007.96   1592.00   36.42   False
  61.80   61.87    384.51    384.51   1007.65   1659.50   37.19   False
  61.90   61.97    354.60    354.60   1007.33   1558.70   36.04   False
  62.00   62.07    259.12    259.12   1007.02   1572.60   36.20   False
  62.10   62.17    150.45    150.45   1006.71   1335.50   33.36   False
  62.20   62.27     69.60     69.60   1006.40   1103.30   30.32   False
  62.30   62.37     25.72     25.72   1006.09    982.70   28.62   False
  62.40   62.47      7.61      7.61   1005.77    997.00   28.82   False
  62.50   62.57      1.81      1.81   1005.46   1023.80   29.21   False
  62.60   62.67      0.35      0.35   1005.15   1024.50   29.22   False
  62.70   62.77      0.05      0.05   1004.84   1030.20   29.30   False
  62.80   62.87      0.01      0.01   1004.53   1032.40   29.33   False
  62.90   62.97      0.00      0.00   1004.21   1026.70   29.25   False
  63.00   63.07      0.00      0.00   1003.90    998.20   28.84   False
  63.10   63.17      0.00      0.00   1003.59    976.50   28.53   False
  63.20   63.27      0.00      0.00   1003.28   1027.70   29.26   False
  63.30   63.37      0.00      0.00   1002.97   1042.70   29.48   False
  63.40   63.47      0.00      0.00   1002.65   1059.20   29.71   False
  63.50   63.57      0.00      0.00   1002.34    978.00   28.55   False
  63.60   63.67      0.00      0.00   1002.03   1001.00   28.88   False
  63.70   63.77      0.00      0.00   1001.72   1010.90   29.02   False
  63.80   63.87      0.00      0.00   1001.41    975.50   28.51   False
  63.90   63.97      0.00      0.00   1001.09    980.80   28.59   False
  64.00   64.07      0.00      0.00   1000.78   1012.10   29.04   False
  64.10   64.17      0.00      0.00   1000.47   1001.10   28.88   False
  64.20   64.27      0.00      0.00   1000.16   1020.70   29.16   False
  64.30   64.37      0.00      0.00    999.85    990.00   28.72   False
  64.40   64.47      0.00      0.00    999.53   1016.50   29.10   False
  64.50   64.57      0.00      0.00    999.22    993.60   28.77   False
  64.60   64.67      0.00      0.00    998.91    981.70   28.60   False
  64.70   64.77      0.00      0.00    998.60    963.10   28.33   False
  64.80   64.87      0.00      0.00    998.29   1014.20   29.07   False
  64.90   64.97      0.00      0.00    997.98    980.90   28.59   False
  65.00   65.07      0.00      0.00    997.66   1011.40   29.03   False
  65.10   65.17      0.00      0.00    997.35   1014.80   29.08   False
  65.20   65.27      0.00      0.00    997.04    994.30   28.79   False
  65.30   65.37      0.00      0.00    996.73   1046.60   29.53   False
  65.40   65.47      0.00      0.00    996.42    980.60   28.59   False
  65.50   65.57      0.00      0.00    996.10   1000.70   28.88   False
  65.60   65.67      0.00      0.00    995.79    988.20   28.70   False
  65.70   65.77      0.00      0.00    995.48   1009.80   29.01   False
  65.80   65.87      0.00      0.00    995.17   1072.90   29.90   False
  65.90   65.97      0.01      0.01    994.86   1073.60   29.91   False
  66.00   66.07      0.07      0.07    994.54   1006.60   28.96   False
  66.10   66.17      0.46      0.46    994.23    993.00   28.77   False
  66.20   66.27      2.47      2.47    993.92   1026.20   29.24   False
  66.30   66.37     10.75     10.75    993.61   1002.60   28.91   False
  66.40   66.47     38.02     38.02    993.30   1095.70   30.22   False
  66.50   66.57    109.40    109.40    992.98   1144.90   30.89   False
  66.60   66.67    256.88    256.88    992.67   1532.70   35.74   False
  66.70   66.77    493.29    493.29    992.36   2199.00   42.81   False
  66.80   66.87    776.47    776.47    992.05   2676.30   47.23   False
  66.90   66.97   1004.10   1004.10    991.74   2754.70   47.91   False
  67.00   67.07   1069.16   1069.16    991.42   2813.40   48.42   False
  67.10   67.17    939.48    939.48    991.11   2728.20   47.68   False
  67.20   67.27    682.77    682.77    990.80   2771.00   48.05   False
  67.30   67.37    411.29    411.29    990.49   1943.00   40.24   False
  67.40   67.47    205.81    205.81    990.18   1191.70   31.51   False
  67.50   67.57     85.73     85.73    989.86   1062.80   29.76   False
  67.60   67.67     29.80     29.80    989.55   1036.80   29.39   False
  67.70   67.77      8.66      8.66    989.24   1038.60   29.42   False
  67.80   67.87      2.11      2.11    988.93   1013.40   29.06   False
  67.90   67.97      0.43      0.43    988.62    976.30   28.52   False
  68.00   68.07      0.07      0.07    988.30   1052.10   29.61   False
  68.10   68.17      0.01      0.01    987.99   1029.30   29.29   False
  68.20   68.27      0.00      0.00    987.68   1087.20   30.10   False
  68.30   68.37      0.00      0.00    987.37   1059.20   29.71   False
  68.40   68.47      0.01      0.01    987.06   1079.50   29.99   False
  68.50   68.57      0.04      0.04    986.75   1145.30   30.89   False
  68.60   68.67      0.20      0.20    986.43   1136.00   30.77   False
  68.70   68.77      0.94      0.94    986.12   1069.30   29.85   False
  68.80   68.87      3.64      3.64    985.81   1087.90   30.11   False
  68.90   68.97     11.65     11.65    985.50   1041.00   29.45   False
  69.00   69.07     30.89     30.89    985.19   1010.50   29.02   False
  69.10   69.17     68.08     68.08    984.87   1164.30   31.15   False
  69.20   69.27    125.00    125.00    984.56   1388.10   34.01   False
  69.30   69.37    191.55    191.55    984.25   1468.90   34.99   False
  69.40   69.47    245.52    245.52    983.94   1490.70   35.25   False
  69.50   69.57    263.75    263.75    983.63   1494.30   35.29   False
  69.60   69.67    237.94    237.94    983.31   1498.00   35.33   False
  69.70   69.77    180.62    180.62    983.00   1507.30   35.44   False
  69.80   69.87    115.61    115.61    982.69   1353.00   33.58   False
  69.90   69.97     62.51     62.51    982.38    968.20   28.40   False
  70.00   70.07     28.61     28.61    982.07   1018.80   29.14   False
  70.10   70.17     11.11     11.11    982.19    954.90   28.21   False
  70.20   70.27      3.66      3.66    982.32    987.50   28.69   False
  70.30   70.37      1.03      1.03    982.45    957.10   28.24   False
  70.40   70.47      0.25      0.25    982.57    996.10   28.81   False
  70.50   70.57      0.05      0.05    982.70    950.20   28.14   False
  70.60   70.67      0.01      0.01    982.83    982.40   28.61   False
  70.70   70.77      0.00      0.00    982.96    933.90   27.90   False
  70.80   70.87      0.00      0.00    983.08    963.10   28.33   False
  70.90   70.97      0.00      0.00    983.21   1000.70   28.88   False
  71.00   71.07      0.00      0.00    983.34    982.50   28.61   False
  71.10   71.17      0.00      0.00    983.46    968.80   28.41   False
  71.20   71.27      0.00      0.00    983.59   1024.60   29.22   False
  71.30   71.37      0.00      0.00    983.72    980.60   28.59   False
  71.40   71.47      0.00      0.00    983.84   1020.40   29.16   False
  71.50   71.57      0.00      0.00    983.97    959.80   28.28   False
  71.60   71.67      0.00      0.00    984.10    949.90   28.14   False
  71.70   71.77      0.00      0.00    984.23    999.60   28.86   False
  71.80   71.87      0.00      0.00    984.35    938.60   27.97   False
  71.90   71.97      0.00      0.00    984.48    931.20   27.86   False
  72.00   72.07      0.00      0.00    984.61    923.90   27.75   False
  72.10   72.17      0.00      0.00    984.73   1005.70   28.95   False
  72.20   72.27      0.00      0.00    984.86    938.50   27.97   False
  72.30   72.37      0.00      0.00    984.99    985.50   28.66   False
  72.40   72.47      0.00      0.00    985.11    957.70   28.25   False
  72.50   72.57      0.00      0.00    985.24    958.00   28.25   False
  72.60   72.67      0.00      0.00    985.37    991.50   28.74   False
  72.70   72.77      0.00      0.00    985.50    988.90   28.71   False
  72.80   72.87      0.00      0.00    985.62    981.10   28.59   False
  72.90   72.97      0.00      0.00    985.75    963.20   28.33   False
  73.00   73.07      0.00      0.00    985.88    991.00   28.74   False
  73.10   73.17      0.00      0.00    986.00    949.70   28.13   False
  73.20   73.27      0.00      0.00    986.13    999.70   28.86   False
  73.30   73.37      0.00      0.00    986.26    949.10   28.12   False
  73.40   73.47      0.00      0.00    986.38    940.40   27.99   False
  73.50   73.57      0.00      0.00    986.51    986.10   28.67   False
  73.60   73.67      0.00      0.00    986.64    940.60   28.00   False
  73.70   73.77      0.00      0.00    986.76    972.60   28.47   False
  73.80   73.87      0.00      0.00    986.89    957.70   28.25   False
  73.90   73.97      0.00      0.00    987.02    982.70   28.62   False
  74.00   74.07      0.00      0.00    987.15    937.40   27.95   False
  74.10   74.17      0.00      0.00    987.27    964.20   28.35   False
  74.20   74.27      0.00      0.00    987.40    936.30   27.93   False
  74.30   74.37      0.00      0.00    987.53    976.60   28.53   False
  74.40   74.47      0.00      0.00    987.65    890.40   27.24   False
  74.50   74.57      0.00      0.00    987.78    964.20   28.35   False
  74.60   74.67      0.00      0.00    987.91    987.70   28.69   False
  74.70   74.77      0.00      0.00    988.03    944.40   28.05   False
  74.80   74.87      0.00      0.00    988.16    996.20   28.81   False
  74.90   74.97      0.00      0.00    988.29    989.50   28.72   False
  75.00   75.07      0.00      0.00    988.42    907.80   27.50   False
  75.10   75.17      0.00      0.00    988.54    988.50   28.70   False
  75.20   75.27      0.00      0.00    988.67    989.70   28.72   False
  75.30   75.37      0.00      0.00    988.80    997.80   28.84   False
  75.40   75.47      0.00      0.00    988.92    961.70   28.31   False
  75.50   75.57      0.01      0.01    989.05    979.70   28.57   False
  75.60   75.67      0.06      0.06    989.18    967.90   28.40   False
  75.70   75.77      0.32      0.32    989.30    931.50   27.86   False
  75.80   75.87      1.39      1.39    989.43    970.00   28.43   False
  75.90   75.97      5.22      5.22    989.56   1039.40   29.43   False
  76.00   76.07     16.95     16.95    989.69    961.10   28.30   False
  76.10   76.17     47.60     47.60    989.81   1002.30   28.90   False
  76.20   76.27    115.90    115.90    989.94   1147.50   30.92   False
  76.30   76.37    244.94    244.94    990.07   1463.30   34.92   False
  76.40   76.47    450.08    450.08    990.19   2162.30   42.45   False
  76.50   76.57    720.15    720.15    990.32   2757.40   47.94   False
  76.60   76.67   1004.93   1004.93    990.45   3040.20   50.33   False
  76.70   76.77   1224.89   1224.89    990.57   3278.40   52.27   False
  76.80   76.87   1306.07   1306.07    990.70   3509.90   54.08   False
  76.90   76.97   1220.11   1220.11    990.83   3179.80   51.48   False
  77.00   77.07   1000.12   1000.12    990.96   3575.70   54.59   False
  77.10   77.17    720.39    720.39    991.08   3051.20   50.42   False
  77.20   77.27    456.65    456.65    991.21   1896.10   39.75   False
  77.30   77.37    255.12    255.12    991.34   1269.90   32.53   False
  77.40   77.47    125.80    125.80    991.46   1041.10   29.45   False
  77.50   77.57     54.83     54.83    991.59   1009.40   29.00   False
  77.60   77.67     21.15     21.15    991.72    999.80   28.86   False
  77.70   77.77      7.23      7.23    991.84    982.10   28.61   False
  77.80   77.87      2.20      2.20    991.97    979.30   28.57   False
  77.90   77.97      0.59      0.59    992.10   1023.90   29.21   False
  78.00   78.07      0.14      0.14    992.23    948.50   28.11   False
  78.10   78.17      0.03      0.03    992.35   1005.80   28.95   False
  78.20   78.27      0.01      0.01    992.48    979.40   28.57   False
  78.30   78.37      0.02      0.02    992.61    990.20   28.73   False
  78.40   78.47      0.05      0.05    992.73    972.90   28.47   False
  78.50   78.57      0.13      0.13    992.86    935.60   27.92   False
  78.60   78.67      0.29      0.29    992.99   1007.90   28.98   False
  78.70   78.77      0.56      0.56    993.11    984.80   28.65   False
  78.80   78.87      0.96      0.96    993.24    992.50   28.76   False
  78.90   78.97      1.44      1.44    993.37   1001.20   28.88   False
  79.00   79.07      1.91      1.91    993.50    953.90   28.19   False
  79.10   79.17      2.24      2.24    993.62    993.80   28.78   False
  79.20   79.27      2.32      2.32    993.75    968.50   28.41   False
  79.30   79.37      2.13      2.13    993.88   1004.40   28.93   False
  79.40   79.47      1.74      1.74    994.00    964.00   28.34   False
  79.50   79.57      1.26      1.26    994.13    957.20   28.24   False
  79.60   79.67      0.82      0.82    994.26    950.90   28.15   False
  79.70   79.77      0.47      0.47    994.38   1013.60   29.06   False
  79.80   79.87      0.24      0.24    994.51   1004.90   28.94   False
  79.90   79.97      0.11      0.11    994.64    963.90   28.34   False
  80.00   80.07      0.05      0.05    994.77   1002.40   28.90   False
  80.10   80.17      0.02      0.02    996.39    976.90   28.53   False
  80.20   80.27      0.01      0.01    998.02    986.80   28.68   False
  80.30   80.37      0.00      0.00    999.64    988.10   28.70   False
  80.40   80.47      0.00      0.00   1001.27    957.90   28.25   False
  80.50   80.57      0.01      0.01   1002.90    995.00   28.80   False
  80.60   80.67      0.05      0.05   1004.52    988.50   28.70   False
  80.70   80.77      0.13      0.13   1006.15   1047.00   29.54   False
  80.80   80.87      0.33      0.33   1007.77   1018.20   29.13   False
  80.90   80.97      0.73      0.73   1009.40   1035.20   29.37   False
  81.00   81.07      1.45      1.45   1011.03   1051.90   29.61   False
  81.10   81.17      2.54      2.54   1012.65   1113.40   30.46   False
  81.20   81.27      3.97      3.97   1014.28   1104.90   30.34   False
  81.30   81.37      5.52      5.52   1015.91   1105.80   30.36   False
  81.40   81.47      6.86      6.86   1017.53   1101.20   30.29   False
  81.50   81.57      7.61      7.61   1019.16   1089.20   30.13   False
  81.60   81.67      7.56      7.56   1020.78   1121.30   30.57   False
  81.70   81.77      6.73      6.73   1022.41   1105.10   30.35   False
  81.80   81.87      5.37      5.37   1024.04   1178.10   31.33   False
  81.90   81.97      3.86      3.86   1025.66   1102.10   30.31   False
  82.00   82.07      2.49      2.49   1027.29   1066.20   29.81   False
  82.10   82.17      1.44      1.44   1028.91   1038.70   29.42   False
  82.20   82.27      0.76      0.76   1030.54   1034.60   29.36   False
  82.30   82.37      0.36      0.36   1032.17   1046.40   29.53   False
  82.40   82.47      0.15      0.15   1033.79   1129.40   30.68   False
  82.50   82.57      0.06      0.06   1035.42   1062.00   29.75   False
  82.60   82.67      0.02      0.02   1037.04   1011.90   29.04   False
  82.70   82.77      0.01      0.01   1038.67   1055.10   29.65   False
  82.80   82.87      0.00      0.00   1040.30   1053.70   29.63   False
  82.90   82.97      0.00      0.00   1041.92   1060.80   29.73   False
  83.00   83.07      0.00      0.00   1043.55   1042.20   29.47   False
  83.10   83.17      0.00      0.00   1045.18    991.50   28.74   False
  83.20   83.27      0.00      0.00   1046.80   1106.40   30.36   False
  83.30   83.37      0.00      0.00   1048.43   1026.10   29.24   False
  83.40   83.47      0.00      0.00   1050.05   1010.70   29.02   False
  83.50   83.57      0.00      0.00   1051.68   1046.90   29.54   False
  83.60   83.67      0.00      0.00   1053.31   1044.00   29.50   False
  83.70   83.77      0.00      0.00   1054.93   1057.50   29.69   False
  83.80   83.87      0.00      0.00   1056.56   1038.70   29.42   False
  83.90   83.97      0.00      0.00   1058.18   1085.00   30.07   False
  84.00   84.07      0.00      0.00   1059.81   1045.30   29.51   False
  84.10   84.17      0.00      0.00   1061.44   1081.90   30.03   False
  84.20   84.27      0.00      0.00   1063.06   1077.30   29.96   False
  84.30   84.37      0.00      0.00   1064.69   1121.40   30.57   False
  84.40   84.47      0.00      0.00   1066.32   1092.00   30.17   False
  84.50   84.57      0.00      0.00   1067.94   1100.50   30.28   False
  84.60   84.67      0.00      0.00   1069.57   1127.30   30.65   False
  84.70   84.77      0.00      0.00   1071.19   1139.40   30.81   False
  84.80   84.87      0.00      0.00   1072.82   1067.90   29.83   False
  84.90   84.97      0.00      0.00   1074.45   1044.10   29.50   False
  85.00   85.07      0.01      0.01   1076.07   1130.60   30.69   False
  85.10   85.17      0.05      0.05   1077.70   1094.60   30.20   False
  85.20   85.27      0.13      0.13   1079.32   1082.70   30.04   False
  85.30   85.37      0.35      0.35   1080.95   1101.50   30.30   False
  85.40   85.47      0.82      0.82   1082.58   1064.30   29.78   False
  85.50   85.57      1.74      1.74   1084.20   1131.70   30.71   False
  85.60   85.67      3.36      3.36   1085.83   1095.40   30.21   False
  85.70   85.77      5.87      5.87   1087.45   1100.80   30.29   False
  85.80   85.87      9.30      9.30   1089.08   1132.70   30.72   False
  85.90   85.97     13.35     13.35   1090.71   1049.20   29.57   False
  86.00   86.07     17.41     17.41   1092.33   1151.30   30.97   False
  86.10   86.17     20.65     20.65   1093.96   1079.70   30.00   False
  86.20   86.27     22.30     22.30   1095.59   1138.90   30.81   False
  86.30   86.37     21.94     21.94   1097.21   1151.70   30.98   False
  86.40   86.47     19.69     19.69   1098.84   1160.50   31.10   False
  86.50   86.57     16.13     16.13   1100.46   1203.30   31.67   False
  86.60   86.67     12.08     12.08   1102.09   1142.70   30.86   False
  86.70   86.77      8.28      8.28   1103.72   1111.10   30.43   False
  86.80   86.87      5.20      5.20   1105.34   1103.40   30.32   False
  86.90   86.97      2.99      2.99   1106.97   1113.40   30.46   False
  87.00   87.07      1.59      1.59   1108.59   1103.00   30.32   False
  87.10   87.17      0.80      0.80   1110.22   1086.10   30.08   False
  87.20   87.27      0.47      0.47   1111.85   1100.50   30.28   False
  87.30   87.37      0.57      0.57   1113.47   1111.20   30.43   False
  87.40   87.47      1.34      1.34   1115.10   1142.10   30.85   False
  87.50   87.57      3.54      3.54   1116.73   1093.90   30.19   False
  87.60   87.67      8.78      8.78   1118.35   1148.90   30.94   False
  87.70   87.77     19.87     19.87   1119.98   1141.30   30.84   False
  87.80   87.87     40.99     40.99   1121.60   1149.50   30.95   False
  87.90   87.97     77.10     77.10   1123.23   1270.40   32.54   False
  88.00   88.07    132.34    132.34   1124.86   1399.70   34.15   False
  88.10   88.17    207.55    207.55   1126.48   1761.90   38.32   False
  88.20   88.27    297.65    297.65   1128.11   1849.30   39.26   False
  88.30   88.37    390.78    390.78   1129.73   2031.70   41.15   False
  88.40   88.47    470.10    470.10   1131.36   2096.00   41.79   False
  88.50   88.57    518.71    518.71   1132.99   2187.90   42.70   False
  88.60   88.67    525.47    525.47   1134.61   2158.00   42.41   False
  88.70   88.77    489.19    489.19   1136.24   2147.60   42.30   False
  88.80   88.87    418.92    418.92   1137.86   2247.70   43.28   False
  88.90   88.97    330.31    330.31   1139.49   2131.90   42.15   False
  89.00   89.07    240.02    240.02   1141.12   1666.20   37.26   False
  89.10   89.17    160.88    160.88   1142.74   1374.50   33.84   False
  89.20   89.27     99.57     99.57   1144.37   1259.90   32.40   False
  89.30   89.37     56.95     56.95   1146.00   1223.50   31.93   False
  89.40   89.47     30.13     30.13   1147.62   1194.30   31.55   False
  89.50   89.57     14.76     14.76   1149.25   1137.70   30.79   False
  89.60   89.67      6.72      6.72   1150.87   1133.60   30.74   False
  89.70   89.77      2.87      2.87   1152.50   1143.20   30.87   False
  89.80   89.87      1.23      1.23   1154.13   1131.10   30.70   False
  89.90   89.97      0.71      0.71   1155.75   1169.70   31.22   False
  90.00   90.07      0.82      0.82   1157.38   1115.30   30.49   False
  90.10   90.17      1.40      1.40   1160.70   1088.60   30.12   False
  90.20   90.27      2.49      2.49   1164.02   1176.60   31.31   False
  90.30   90.37      4.18      4.18   1167.34   1214.10   31.81   False
  90.40   90.47      6.46      6.46   1170.66   1159.60   31.09   False
  90.50   90.57      9.22      9.22   1173.98   1191.90   31.52   False
  90.60   90.67     12.13     12.13   1177.30   1160.10   31.09   False
  90.70   90.77     14.72     14.72   1180.62   1173.60   31.27   False
  90.80   90.87     16.50     16.50   1183.94   1186.20   31.44   False
  90.90   90.97     17.10     17.10   1187.26   1154.60   31.02   False
  91.00   91.07     16.40     16.40   1190.58   1172.20   31.25   False
  91.10   91.17     14.56     14.56   1193.90   1173.40   31.27   False
  91.20   91.27     11.99     11.99   1197.22   1176.70   31.31   False
  91.30   91.37      9.16      9.16   1200.55   1166.60   31.18   False
  91.40   91.47      6.49      6.49   1203.87   1220.60   31.89   False
  91.50   91.57      4.29      4.29   1207.19   1187.40   31.46   False
  91.60   91.67      2.66      2.66   1210.51   1131.90   30.71   False
  91.70   91.77      1.64      1.64   1213.83   1188.90   31.48   False
  91.80   91.87      1.25      1.25   1217.15   1182.20   31.39   False
  91.90   91.97      1.69      1.69   1220.47   1151.00   30.97   False
  92.00   92.07      3.63      3.63   1223.79   1197.70   31.59   False
  92.10   92.17      8.53      8.53   1227.11   1192.60   31.53   False
  92.20   92.27     19.13     19.13   1230.43   1258.00   32.38   False
  92.30   92.37     39.86     39.86   1233.75   1253.60   32.32   False
  92.40   92.47     76.82     76.82   1237.07   1345.10   33.48   False
  92.50   92.57    136.96    136.96   1240.39   1496.40   35.31   False
  92.60   92.67    226.08    226.08   1243.71   1846.50   39.23   False
  92.70   92.77    345.76    345.76   1247.03   2283.80   43.63   False
  92.80   92.87    490.36    490.36   1250.35   2406.00   44.78   False
  92.90   92.97    645.41    645.41   1253.67   2568.40   46.26   False
  93.00   93.07    789.06    789.06   1256.99   2836.70   48.62   False
  93.10   93.17    896.78    896.78   1260.31   2960.40   49.67   False
  93.20   93.27    948.25    948.25   1263.63   3143.60   51.18   False
  93.30   93.37    933.63    933.63   1266.96   2990.60   49.92   False
  93.40   93.47    856.63    856.63   1270.28   3092.10   50.76   False
  93.50   93.57    733.03    733.03   1273.60   3136.70   51.13   False

loop_dy3al5o12
_pd_peak_index_h
_pd_peak_index_k
_pd_peak_index_l
_pd_peak_index_mult
_pd_peak_2theta
_pd_peak_intensity_plus
_pd_peak_intensity_minus
  1   1   0   12   16.33     0.00     0.00
  2   0   0    6   23.20     0.00     0.00
  2   1   1   24   28.53   261.12   261.12
  2   2   0   12   33.07    38.07    38.07
  3   1   0   24   37.12     0.00     0.00
  2   2   2    8   40.82     0.00     0.00
  3   2   1   48   44.27   168.97   168.97
  4   0   0    6   47.51   179.55   179.55
  4   1   1   24   50.59     0.00     0.00
  3   3   0   12   50.59     0.00     0.00
  4   2   0   24   53.54   793.32   793.32
  3   3   2   24   56.39    25.07    25.07
  4   2   2   24   59.14    23.11    23.11
  4   3   1   48   61.82   199.40   199.40
  5   1   0   24   61.82     0.00     0.00
  5   2   1   48   66.98   612.71   612.71
  4   4   0   12   69.49   158.26   158.26
  5   3   0   24   71.96     0.00     0.00
  4   3   3   24   71.96     0.00     0.00
  4   4   2   24   74.39     0.00     0.00
  6   0   0    6   74.39     0.00     0.00
  6   1   1   24   76.80   463.75   463.75
  5   3   2   48   76.80   436.50   436.50
  6   2   0   24   79.18     1.68     1.68
  5   4   1   48   81.55     5.80     5.80
  6   2   2   24   83.90     0.00     0.00
  6   3   1   48   86.23    18.46    18.46
  4   4   4    8   88.57   454.64   454.64
  5   4   3   48   90.90    15.38    15.38
  5   5   0   12   90.90     0.00     0.00
  7   1   0   24   90.90     0.00     0.00
  6   4   0   24   93.23   893.90   893.90
  5   5   2   24   95.57   210.18   210.18
  6   3   3   24   95.57    29.27    29.27
  7   2   1   48   95.57    69.84    69.84